# vtk DataFile Version 2.0
Test
ASCII
DATASET STRUCTURED_POINTS
DIMENSIONS 9 9 1
ORIGIN 0 0 0
SPACING 0.125 0.125 1
CELL_DATA 64
SCALARS ScalarValue double 1
LOOKUP_TABLE default
0.876543
0.925211
0.958004
0.991142
1.02352
1.05457
1.0823
1.12346
0.876543
0.919789
0.956277
0.99062
1.02372
1.05592
1.08749
1.12346
0.876543
0.918092
0.955525
0.990474
1.02402
1.05674
1.08913
1.12346
0.876543
0.917748
0.955212
0.990383
1.02413
1.05707
1.0898
1.12346
0.876543
0.917748
0.955212
0.990383
1.02413
1.05707
1.0898
1.12346
0.876543
0.918092
0.955525
0.990474
1.02402
1.05674
1.08913
1.12346
0.876543
0.919789
0.956277
0.99062
1.02372
1.05592
1.08749
1.12346
0.876543
0.925211
0.958004
0.991142
1.02352
1.05457
1.0823
1.12346
