# vtk DataFile Version 2.0
Test
ASCII
DATASET STRUCTURED_POINTS
DIMENSIONS 8 8 1
ORIGIN 0 0 0
SPACING 0.125 0.125 1
POINT_DATA 64
VECTORS Velocity double
1.50477e-17 1.50477e-17 0
7.11688e-18 0 0
-1.41796e-17 -7.08979e-18 0
3.52727e-18 -1.05818e-17 0
1.39809e-17 1.39809e-17 0
0 6.91915e-18 0
6.83826e-18 0 0
-9.65751e-18 2.25342e-17 0
-0.0127239 3.76192e-18 0
-0.0458272 0.00320516 0
-0.0350788 0.0049597 0
-0.0637144 0.00461624 0
-0.0628421 0.00331912 0
-0.0727118 0.00112603 0
-0.0679047 -2.93501e-05 0
-0.0678829 6.43834e-18 0
-0.0168465 -3.76192e-18 0
-0.117276 0.0184916 0
-0.076929 0.0297233 0
-0.154328 0.0245497 0
-0.143356 0.017822 0
-0.168044 0.00547508 0
-0.152479 -8.09284e-05 0
-0.15287 -6.43834e-18 0
0.00527775 7.52384e-18 0
-0.149123 0.0457306 0
-0.0788384 0.0701018 0
-0.205094 0.0568943 0
-0.170064 0.0434223 0
-0.217038 0.00696338 0
-0.174612 -0.00556829 0
-0.181609 -6.43834e-18 0
0.0447714 7.52384e-18 0
-0.12558 0.0852458 0
-0.0380419 0.121087 0
-0.213281 0.100724 0
-0.128496 0.0687047 0
-0.230656 6.25649e-05 0
-0.115494 -0.015951 0
-0.168558 -6.43834e-18 0
0.10666 -3.76192e-18 0
-0.0327211 0.14504 0
0.0350576 0.185787 0
-0.139031 0.145312 0
0.0236252 0.0793506 0
-0.154097 0.00906815 0
0.0725149 -0.0327655 0
-0.236949 -1.28767e-17 0
0.189217 1.50477e-17 0
0.125707 0.28955 0
0.223943 0.190881 0
0.226326 0.128997 0
0.360003 0.0114637 0
0.209548 0.0684822 0
0.367354 -0.0484677 0
-0.177823 0 0
7.52384e-18 0 0
1 -3.41978e-17 0
1 -2.61631e-17 0
1 0 0
1 1.62181e-17 0
1 -1.33412e-17 0
1 -2.07482e-17 0
0 0 0
