# vtk DataFile Version 2.0
Test
ASCII
DATASET STRUCTURED_POINTS
DIMENSIONS 8 8 1
ORIGIN 0 0 0
SPACING 0.125 0.125 1
POINT_DATA 64
VECTORS Velocity double
-0.9 2.77556e-17 0
-0.9 -2.22045e-16 0
-0.9 1.11022e-16 0
-0.9 -1.11022e-16 0
-0.9 -5.55112e-17 0
-0.9 0 0
-0.9 0 0
-0.9 -2.77556e-17 0
-0.642857 -1.38778e-16 0
-0.642857 -5.55112e-17 0
-0.642857 -8.32667e-17 0
-0.642857 -3.60822e-16 0
-0.642857 -1.11022e-16 0
-0.642857 -1.66533e-16 0
-0.642857 -1.11022e-16 0
-0.642857 -1.38778e-16 0
-0.385714 -5.55112e-17 0
-0.385714 -1.11022e-16 0
-0.385714 -8.32667e-17 0
-0.385714 -2.498e-16 0
-0.385714 -1.94289e-16 0
-0.385714 -5.55112e-17 0
-0.385714 -4.16334e-17 0
-0.385714 -4.16334e-17 0
-0.128571 1.66533e-16 0
-0.128571 6.93889e-17 0
-0.128571 -4.16334e-17 0
-0.128571 -8.32667e-17 0
-0.128571 0 0
-0.128571 -4.16334e-17 0
-0.128571 1.249e-16 0
-0.128571 1.80411e-16 0
0.128571 2.08167e-16 0
0.128571 1.17961e-16 0
0.128571 1.249e-16 0
0.128571 1.38778e-17 0
0.128571 1.80411e-16 0
0.128571 1.80411e-16 0
0.128571 2.35922e-16 0
0.128571 2.22045e-16 0
0.385714 4.85723e-17 0
0.385714 3.1572e-16 0
0.385714 2.63678e-16 0
0.385714 2.04697e-16 0
0.385714 3.05311e-16 0
0.385714 2.98372e-16 0
0.385714 3.50414e-16 0
0.385714 4.16334e-17 0
0.642857 2.498e-16 0
0.642857 -6.07153e-17 0
0.642857 3.64292e-16 0
0.642857 1.9082e-16 0
0.642857 1.85615e-16 0
0.642857 3.34802e-16 0
0.642857 3.33067e-16 0
0.642857 1.59595e-16 0
0.9 6.07153e-17 0
0.9 1.09288e-16 0
0.9 -3.1225e-17 0
0.9 1.50921e-16 0
0.9 1.56125e-16 0
0.9 5.37764e-17 0
0.9 9.54098e-17 0
0.9 5.55112e-17 0
