# vtk DataFile Version 2.0
Test
ASCII
DATASET STRUCTURED_POINTS
DIMENSIONS 33 33 1
ORIGIN 0 0 0
SPACING 0.030303 0.030303 1
POINT_DATA 1089
VECTORS Velocity double
1.38778e-17 -1.04084e-17 0
1.38781e-17 1.38781e-17 0
-3.46956e-18 -3.46956e-18 0
3.46962e-18 1.04088e-17 0
0 1.04091e-17 0
1.04093e-17 0 0
3.46981e-18 -6.93962e-18 0
6.93968e-18 -6.93968e-18 0
-3.46984e-18 1.38794e-17 0
-6.93964e-18 2.08189e-17 0
6.93953e-18 -1.38791e-17 0
2.08181e-17 -6.93938e-18 0
-3.46959e-18 0 0
0 1.04084e-17 0
-1.0408e-17 3.46932e-18 0
1.38767e-17 -3.46917e-18 0
0 6.93803e-18 0
-6.93771e-18 6.93771e-18 0
-3.4687e-18 -1.04061e-17 0
-1.04057e-17 3.46856e-18 0
1.04053e-17 -3.46843e-18 0
1.38733e-17 6.93666e-18 0
-3.46825e-18 1.04047e-17 0
-1.04046e-17 -6.9364e-18 0
-1.04045e-17 -1.38727e-17 0
-1.38728e-17 6.93638e-18 0
6.93646e-18 -1.38729e-17 0
-1.38732e-17 -6.93658e-18 0
1.04051e-17 3.46836e-18 0
-3.46844e-18 6.93688e-18 0
-1.3874e-17 3.4685e-18 0
3.46868e-17 6.93736e-18 0
3.46929e-18 1.04079e-17 0
0 0 0
3.15651e-06 -3.13017e-06 0
6.56945e-06 7.76299e-07 0
-1.10221e-05 9.89587e-06 0
-5.58619e-05 1.94008e-05 0
-0.000125799 2.7411e-05 0
-0.000215627 3.33339e-05 0
-0.00031922 3.70656e-05 0
-0.000430416 3.8698e-05 0
-0.000543404 3.84019e-05 0
-0.000652887 3.63784e-05 0
-0.000754149 3.2838e-05 0
-0.000843084 2.79941e-05 0
-0.00091621 2.20635e-05 0
-0.000970689 1.52705e-05 0
-0.00100436 7.85199e-06 0
-0.00101578 6.28172e-08 0
-0.00100427 -7.82135e-06 0
-0.000970023 -1.55035e-05 0
-0.000914084 -2.26681e-05 0
-0.000838451 -2.89886e-05 0
-0.000746064 -3.41373e-05 0
-0.000640788 -3.78e-05 0
-0.00052735 -3.96922e-05 0
-0.000411221 -3.95787e-05 0
-0.000298435 -3.72944e-05 0
-0.000195344 -3.27725e-05 0
-0.000108264 -2.60905e-05 0
-4.29347e-05 -1.75702e-05 0
-3.54642e-06 -8.0337e-06 0
9.32253e-06 4.90052e-07 0
3.52548e-06 3.48235e-06 0
-2.77495e-17 1.38747e-17 0
6.93897e-18 -3.46949e-18 0
-6.32505e-07 -6.67983e-06 0
-2.36144e-05 2.39267e-05 0
-0.000101 7.86865e-05 0
-0.000242183 0.000134791 0
-0.000442683 0.00018265 0
-0.000691151 0.000218472 0
-0.000973273 0.00024117 0
-0.00127393 0.000250943 0
-0.00157837 0.000248612 0
-0.00187283 0.000235293 0
-0.00214484 0.000212244 0
-0.00238349 0.000180796 0
-0.00257946 0.000142342 0
-0.00272516 9.83417e-05 0
-0.00281487 5.03464e-05 0
-0.00284482 2.1936e-08 0
-0.00281335 -5.08398e-05 0
-0.00272105 -0.000100323 0
-0.00257087 -0.000146411 0
-0.00236821 -0.000187034 0
-0.00212094 -0.000220134 0
-0.00183926 -0.000243764 0
-0.00153554 -0.000256188 0
-0.00122393 -0.000256017 0
-0.000919831 -0.000242355 0
-0.000639191 -0.00021499 0
-0.000397432 -0.000174691 0
-0.00020799 -0.000123763 0
-8.00305e-05 -6.72317e-05 0
-1.47671e-05 -1.54803e-05 0
7.66887e-07 9.49878e-06 0
-3.46856e-18 -1.04057e-17 0
3.46943e-18 1.04083e-17 0
-9.76428e-06 1.05855e-05 0
-7.90237e-05 0.00010166 0
-0.000234181 0.00023275 0
-0.000478605 0.000364418 0
-0.000804013 0.000477197 0
-0.00119469 0.000562102 0
-0.00163094 0.00061587 0
-0.0020916 0.000638343 0
-0.00255557 0.000631059 0
-0.00300286 0.000596468 0
-0.00341516 0.000537524 0
-0.00377629 0.00045748 0
-0.00407242 0.000359814 0
-0.00429227 0.000248225 0
-0.00442736 0.000126662 0
-0.00447214 -6.42848e-07 0
-0.00442426 -0.000129154 0
-0.0042847 -0.000254053 0
-0.00405796 -0.000370305 0
-0.00375213 -0.000472775 0
-0.00337884 -0.000556409 0
-0.00295315 -0.000616458 0
-0.00249311 -0.000648761 0
-0.00201929 -0.000650077 0
-0.00155386 -0.000618466 0
-0.00111952 -0.000553783 0
-0.000737925 -0.00045837 0
-0.00042775 -0.000338209 0
-0.000202003 -0.000205 0
-6.47434e-05 -8.00565e-05 0
-7.32945e-06 -2.26295e-06 0
1.04059e-17 1.73431e-17 0
1.0408e-17 1.0408e-17 0
-1.988e-05 5.59692e-05 0
-0.000139878 0.000246717 0
-0.000378828 0.000481068 0
-0.000729563 0.000709095 0
-0.00117741 0.000903016 0
-0.00170175 0.00104858 0
-0.00227831 0.00113991 0
-0.00288122 0.00117618 0
-0.00348466 0.00115956 0
-0.00406399 0.00109406 0
-0.00459651 0.000984724 0
-0.00506205 0.000837278 0
-0.0054433 0.000657971 0
-0.00572617 0.000453508 0
-0.00590002 0.00023108 0
-0.00595793 -1.60805e-06 0
-0.00589698 -0.000236327 0
-0.00571843 -0.000464371 0
-0.00542789 -0.000676683 0
-0.00503546 -0.000864078 0
-0.00455561 -0.00101756 0
-0.00400701 -0.00112873 0
-0.00341201 -0.00119032 0
-0.002796 -0.00119676 0
-0.00218629 -0.00114489 0
-0.00161079 -0.0010348 0
-0.0010962 -0.000870934 0
-0.000665942 -0.000663701 0
-0.000337723 -0.000431966 0
-0.000121205 -0.000207036 0
-1.66139e-05 -3.96075e-05 0
-1.04061e-17 6.9374e-18 0
-3.46927e-18 3.46927e-18 0
-2.95624e-05 0.000129785 0
-0.000199372 0.000461438 0
-0.000522137 0.000826089 0
-0.000978977 0.00116865 0
-0.00154718 0.00145581 0
-0.00220024 0.00166927 0
-0.00290915 0.00180092 0
-0.00364385 0.00184941 0
-0.00437459 0.00181772 0
-0.00507308 0.00171154 0
-0.00571325 0.00153835 0
-0.00627185 0.00130677 0
-0.00672895 0.00102631 0
-0.00706824 0.000707243 0
-0.0072774 0.00036064 0
-0.00734839 -1.65297e-06 0
-0.00727771 -0.000367 0
-0.00706671 -0.000722068 0
-0.00672171 -0.00105302 0
-0.00625418 -0.00134587 0
-0.00568064 -0.00158693 0
-0.00502244 -0.00176351 0
-0.00430525 -0.00186461 0
-0.0035583 -0.0018819 0
-0.00281315 -0.00181071 0
-0.0021023 -0.00165127 0
-0.00145734 -0.00141011 0
-0.000906858 -0.00110195 0
-0.000474482 -0.000752095 0
-0.000177276 -0.00039984 0
-2.5627e-05 -0.000103358 0
6.93757e-18 -1.04064e-17 0
0 -3.46921e-18 0
-3.85539e-05 0.000230445 0
-0.000255746 0.000744084 0
-0.000659982 0.00126672 0
-0.00122099 0.00174162 0
-0.00190732 0.00213263 0
-0.00268587 0.0024191 0
-0.00352247 0.00259173 0
-0.00438288 0.0026492 0
-0.00523383 0.00259566 0
-0.00604392 0.00243886 0
-0.00678434 0.002189 0
-0.00742947 0.00185792 0
-0.00795729 0.0014588 0
-0.00834979 0.00100589 0
-0.00859325 0.000514561 0
-0.00867862 1.28395e-06 0
-0.00860179 -0.000516396 0
-0.00836391 -0.00101998 0
-0.00797161 -0.00149028 0
-0.00743716 -0.00190789 0
-0.00677846 -0.00225384 0
-0.00601885 -0.00251048 0
-0.00518665 -0.00266251 0
-0.00431433 -0.00269826 0
-0.00343739 -0.00261107 0
-0.00259288 -0.00240082 0
-0.00181756 -0.00207567 0
-0.001146 -0.00165393 0
-0.000608794 -0.00116623 0
-0.000231366 -0.000658002 0
-3.41143e-05 -0.000192385 0
-3.46887e-18 1.38755e-17 0
-3.46916e-18 1.04075e-17 0
-4.69504e-05 0.000356203 0
-0.000309157 0.00109186 0
-0.000792098 0.00180052 0
-0.00145487 0.00242587 0
-0.00225715 0.00293109 0
-0.00315882 0.00329494 0
-0.00412023 0.00350818 0
-0.00510284 0.00357047 0
-0.00606995 0.00348774 0
-0.00698739 0.00327029 0
-0.00782405 0.0029314 0
-0.00855236 0.00248649 0
-0.00914866 0.00195265 0
-0.00959354 0.00134843 0
-0.00987209 0.000693779 0
-0.0099743 1.00811e-05 0
-0.00989531 -0.000679879 0
-0.00963579 -0.00135206 0
-0.00920224 -0.0019815 0
-0.0086072 -0.00254287 0
-0.00786937 -0.00301133 0
-0.00701351 -0.00336361 0
-0.00607009 -0.00357943 0
-0.00507455 -0.00364301 0
-0.00406626 -0.00354493 0
-0.00308704 -0.00328395 0
-0.00217944 -0.00286896 0
-0.00138481 -0.00232091 0
-0.000741593 -0.00167464 0
-0.000284084 -0.00098044 0
-4.22357e-05 -0.000305514 0
0 1.04068e-17 0
3.46913e-18 -1.38765e-17 0
-5.49326e-05 0.000505693 0
-0.000360371 0.00150224 0
-0.000919706 0.00242503 0
-0.00168207 0.00321929 0
-0.0025984 0.00384922 0
-0.00362136 0.00429463 0
-0.00470562 0.00454776 0
-0.00580821 0.00461029 0
-0.00688908 0.0044908 0
-0.00791144 0.00420271 0
-0.00884221 0.00376289 0
-0.00965223 0.00319064 0
-0.0103165 0.00250722 0
-0.0108145 0.00173562 0
-0.0111302 0.000900544 0
-0.0112526 2.84151e-05 0
-0.011176 -0.000852573 0
-0.0109003 -0.00171262 0
-0.0104314 -0.00252065 0
-0.00978144 -0.00324501 0
-0.00896948 -0.00385439 0
-0.00802116 -0.00431923 0
-0.00696867 -0.00461333 0
-0.00585023 -0.0047159 0
-0.00470912 -0.00461367 0
-0.00359235 -0.00430315 0
-0.00254885 -0.00379286 0
-0.00162763 -0.00310529 0
-0.000875762 -0.00227851 0
-0.000336882 -0.00136702 0
-5.02802e-05 -0.000442205 0
1.3876e-17 0 0
1.04074e-17 -6.93827e-18 0
-6.2677e-05 0.000678034 0
-0.000410252 0.00197342 0
-0.00104441 0.00313828 0
-0.00190475 0.0041201 0
-0.00293358 0.00488542 0
-0.0040763 0.00541656 0
-0.00528176 0.00570867 0
-0.00650253 0.00576668 0
-0.00769525 0.00560279 0
-0.00882076 0.0052343 0
-0.00984422 0.00468214 0
-0.0107352 0.00396985 0
-0.0114677 0.00312307 0
-0.0120202 0.00216932 0
-0.0123759 0.00113805 0
-0.0125227 6.07214e-05 0
-0.0124538 -0.00102906 0
-0.012168 -0.00209564 0
-0.01167 -0.00310167 0
-0.0109713 -0.00400875 0
-0.0100904 -0.00477857 0
-0.0090534 -0.00537443 0
-0.00789371 -0.00576325 0
-0.00665212 -0.00591795 0
-0.00537588 -0.00582005 0
-0.00411751 -0.00546243 0
-0.00293306 -0.00485185 0
-0.00187999 -0.00401116 0
-0.00101492 -0.0029808 0
-0.000391468 -0.00181922 0
-5.85635e-05 -0.000602753 0
1.38762e-17 -3.46904e-18 0
-1.38767e-17 3.46918e-18 0
-7.0331e-05 0.000872786 0
-0.000459564 0.00250439 0
-0.00116773 0.00393905 0
-0.002125 0.00512703 0
-0.00326508 0.00603832 0
-0.00452605 0.00665922 0
-0.00585087 0.00698919 0
-0.0071877 0.00703776 0
-0.00849 0.0068218 0
-0.00971644 0.00636334 0
-0.0108308 0.00568799 0
-0.0118017 0.00482387 0
-0.0126026 0.00380114 0
-0.0132111 0.00265184 0
-0.0136098 0.00141004 0
-0.0137856 0.000112106 0
-0.0137304 -0.00120313 0
-0.0134414 -0.00249427 0
-0.0129219 -0.00371759 0
-0.0121818 -0.00482769 0
-0.0112386 -0.00577867 0
-0.0101179 -0.00652583 0
-0.00885381 -0.007028 0
-0.00748937 -0.00725033 0
-0.00607572 -0.00716747 0
-0.00467119 -0.00676689 0
-0.00333957 -0.00605194 0
-0.00214772 -0.00504448 0
-0.00116283 -0.00378647 0
-0.000449578 -0.00234032 0
-6.73941e-05 -0.000788318 0
-1.04072e-17 -3.46906e-18 0
-1.04078e-17 -1.04078e-17 0
-7.80112e-05 0.00108987 0
-0.000508936 0.00309484 0
-0.00129093 0.00482677 0
-0.00234456 0.00623919 0
-0.00359476 0.00730664 0
-0.00497216 0.00802083 0
-0.00641382 0.00838706 0
-0.00786357 0.00842087 0
-0.00927189 0.00814505 0
-0.0105957 0.00758729 0
-0.0117978 0.0067785 0
-0.0128463 0.00575177 0
-0.0137145 0.00454187 0
-0.0143799 0.00318527 0
-0.0148243 0.00172041 0
-0.0150337 0.000188176 0
-0.0149988 -0.00136772 0
-0.0147148 -0.00290039 0
-0.014183 -0.00435988 0
-0.013411 -0.00569362 0
-0.0124143 -0.00684763 0
-0.0112171 -0.0077683 0
-0.00985372 -0.00840499 0
-0.00836845 -0.00871336 0
-0.00681614 -0.00865912 0
-0.0052611 -0.00822216 0
-0.00377543 -0.0074004 0
-0.0024364 -0.00621304 0
-0.00132315 -0.00470262 0
-0.000512883 -0.00293545 0
-7.70654e-05 -0.0010009 0
0 -3.46906e-18 0
-3.46938e-18 1.04081e-17 0
-8.58114e-05 0.00132951 0
-0.000558878 0.00374507 0
-0.00141505 0.00580143 0
-0.00256476 0.00745593 0
-0.00392382 0.00868888 0
-0.00541515 0.00949891 0
-0.00696988 0.00989886 0
-0.00852764 0.00991186 0
-0.0100363 0.00956799 0
-0.0114515 0.00890167 0
-0.0127357 0.00794984 0
-0.0138573 0.0067509 0
-0.0147897 0.00534431 0
-0.0155109 0.00377076 0
-0.0160026 0.00207262 0
-0.0162501 0.000294755 0
-0.0162425 -0.00151483 0
-0.015973 -0.00330431 0
-0.0154401 -0.00501783 0
-0.0146484 -0.00659572 0
-0.0136102 -0.00797552 0
-0.0123476 -0.00909381 0
-0.0108932 -0.00988904 0
-0.00929207 -0.0103053 0
-0.00760207 -0.010297 0
-0.00589332 -0.00983366 0
-0.00424676 -0.00890527 0
-0.00275119 -0.00752622 0
-0.00149934 -0.00573828 0
-0.000582979 -0.00361147 0
-8.78582e-05 -0.00124329 0
0 0 0
-3.46955e-18 6.9391e-18 0
-9.38164e-05 0.00159215 0
-0.00060985 0.00445587 0
-0.00154097 0.00686342 0
-0.00278667 0.00877667 0
-0.00425292 0.010183 0
-0.00585458 0.0110898 0
-0.00751673 0.0115193 0
-0.00917501 0.0115042 0
-0.0107752 0.0110833 0
-0.0122724 0.0102991 0
-0.0136295 0.00919521 0
-0.0148159 0.00781586 0
-0.0158064 0.00620515 0
-0.0165799 0.00440763 0
-0.0171186 0.00246906 0
-0.0174074 0.000437446 0
-0.0174342 -0.00163575 0
-0.0171898 -0.00369463 0
-0.0166693 -0.00567808 0
-0.0158734 -0.00751968 0
-0.0148102 -0.00914837 0
-0.0134975 -0.0104901 0
-0.0119654 -0.0114709 0
-0.010258 -0.0120211 0
-0.00843489 -0.0120806 0
-0.00657167 -0.0116057 0
-0.00475839 -0.0105747 0
-0.0030966 -0.0089945 0
-0.00169459 -0.00690422 0
-0.000661395 -0.0043769 0
-0.000100047 -0.00151904 0
-1.04069e-17 -1.04069e-17 0
2.42884e-17 0 0
-0.000102121 0.00187852 0
-0.000662361 0.00522853 0
-0.00166967 0.00801354 0
-0.00301133 0.0102007 0
-0.00458247 0.0117861 0
-0.00628925 0.012788 0
-0.00805055 0.0132406 0
-0.00979837 0.0131879 0
-0.0114771 0.0126798 0
-0.0130421 0.0117678 0
-0.0144579 0.0105036 0
-0.0156962 0.00893723 0
-0.0167341 0.00711752 0
-0.0175525 0.00509239 0
-0.0181349 0.00291017 0
-0.0184666 0.000621015 0
-0.0185343 -0.00172138 0
-0.0183264 -0.00405821 0
-0.0178343 -0.00632424 0
-0.0170537 -0.00844702 0
-0.0159868 -0.0103471 0
-0.0146458 -0.0119393 0
-0.0130557 -0.0131358 0
-0.0112576 -0.0138505 0
-0.00931144 -0.0140057 0
-0.007297 -0.0135399 0
-0.00531349 -0.0124159 0
-0.00347636 -0.0106289 0
-0.00191188 -0.00821259 0
-0.000749625 -0.00524176 0
-0.000113911 -0.00183248 0
-1.38754e-17 0 0
-2.08204e-17 1.38803e-17 0
-0.000110853 0.00218963 0
-0.000717104 0.00606495 0
-0.00180246 0.00925297 0
-0.00324016 0.011727 0
-0.00491299 0.013494 0
-0.00671751 0.0145858 0
-0.00856623 0.0150512 0
-0.0103879 0.0149487 0
-0.0121266 0.014341 0
-0.0137391 0.0132908 0
-0.0151931 0.0118584 0
-0.0164641 0.0101003 0
-0.0175328 0.00806972 0
-0.0183837 0.0058175 0
-0.0190026 0.00339346 0
-0.0193758 0.000848571 0
-0.0194895 -0.00176276 0
-0.0193301 -0.00438046 0
-0.0188845 -0.00693673 0
-0.0181426 -0.00935442 0
-0.0170994 -0.0115464 0
-0.015759 -0.0134164 0
-0.0141389 -0.0148613 0
-0.0122743 -0.0157763 0
-0.0102227 -0.0160619 0
-0.00806642 -0.0156339 0
-0.00591316 -0.0144339 0
-0.00389334 -0.0124401 0
-0.00215391 -0.00967657 0
-0.00084917 -0.00621753 0
-0.000129743 -0.00218865 0
0 -1.04061e-17 0
-3.47043e-18 -1.04113e-17 0
-0.000120212 0.00252694 0
-0.00077514 0.00696793 0
-0.00194137 0.0105835 0
-0.00347543 0.0133544 0
-0.00524561 0.0153009 0
-0.00713766 0.0164721 0
-0.00905752 0.0169351 0
-0.0109315 0.0167663 0
-0.0127043 0.016044 0
-0.0143363 0.0148438 0
-0.0158001 0.0132358 0
-0.0170766 0.0112833 0
-0.0181524 0.00904384 0
-0.0190167 0.0065701 0
-0.0196592 0.00391226 0
-0.0200685 0.00112053 0
-0.0202312 -0.00175188 0
-0.0201317 -0.00464575 0
-0.0197527 -0.00749285 0
-0.0190772 -0.0102133 0
-0.0180916 -0.0127139 0
-0.0167895 -0.0148876 0
-0.0151774 -0.0166156 0
-0.0132812 -0.0177718 0
-0.0111522 -0.0182306 0
-0.00887215 -0.017879 0
-0.0065559 -0.0166299 0
-0.00434939 -0.0144375 0
-0.00242325 -0.0113099 0
-0.000961603 -0.007317 0
-0.00014787 -0.00259344 0
1.04054e-17 0 0
2.08252e-17 -6.94173e-18 0
-0.000130512 0.00289263 0
-0.000838154 0.00794163 0
-0.00208963 0.0120081 0
-0.00372086 0.0150813 0
-0.00558262 0.0171988 0
-0.00754824 0.0184315 0
-0.00951699 0.0188701 0
-0.0114137 0.0186129 0
-0.013186 0.0177573 0
-0.0147999 0.0163937 0
-0.0162351 0.0146032 0
-0.0174807 0.0124563 0
-0.0185309 0.0100142 0
-0.0193817 0.00733058 0
-0.0200283 0.00445447 0
-0.0204631 0.00143344 0
-0.020674 -0.00168275 0
-0.0206444 -0.00483825 0
-0.020353 -0.00796717 0
-0.0197756 -0.0109897 0
-0.0188883 -0.0138089 0
-0.0176717 -0.0163089 0
-0.0161179 -0.018355 0
-0.0142386 -0.0197979 0
-0.0120737 -0.0204816 0
-0.00970018 -0.0202568 0
-0.00723685 -0.0189989 0
-0.00484509 -0.0166276 0
-0.00272231 -0.0131261 0
-0.00108867 -0.00855425 0
-0.000168679 -0.00305362 0
0 -3.46817e-18 0
0 -1.04142e-17 0
-0.000142255 0.00328998 0
-0.0009088 0.00899238 0
-0.0022523 0.013531 0
-0.00398234 0.0169058 0
-0.00592798 0.0191766 0
-0.00794815 0.0204433 0
-0.00993563 0.0208262 0
-0.0118157 0.0204513 0
-0.0135415 0.0194388 0
-0.0150877 0.0178966 0
-0.0164446 0.0159175 0
-0.0176118 0.0135792 0
-0.0185936 0.010946 0
-0.0193948 0.00807132 0
-0.0200182 0.00500125 0
-0.0204611 0.00177867 0
-0.0207148 -0.00155259 0
-0.0207623 -0.00494303 0
-0.0205794 -0.00833242 0
-0.0201347 -0.0116446 0
-0.019393 -0.0147826 0
-0.0183196 -0.0176244 0
-0.0168882 -0.0200214 0
-0.0150905 -0.0218 0
-0.0129489 -0.0227695 0
-0.0105283 -0.0227365 0
-0.00794686 -0.0215267 0
-0.00537959 -0.0190121 0
-0.00305356 -0.015138 0
-0.00123246 -0.00994466 0
-0.000192661 -0.00357703 0
-1.38711e-17 -3.46777e-18 0
-2.43041e-17 3.47201e-18 0
-0.00015623 0.00372402 0
-0.0009912 0.0101299 0
-0.00243713 0.0151591 0
-0.00426879 0.0188255 0
-0.0062877 0.0212194 0
-0.0083362 0.0224787 0
-0.0103016 0.0227628 0
-0.0121125 0.022232 0
-0.0137318 0.0210338 0
-0.0151471 0.0192957 0
-0.0163624 0.0171232 0
-0.0173914 0.0146007 0
-0.0182508 0.0117944 0
-0.0189567 0.00875564 0
-0.0195207 0.00552599 0
-0.0199473 0.00214127 0
-0.0202321 -0.00136325 0
-0.02036 -0.00494755 0
-0.0203047 -0.00856085 0
-0.0200286 -0.0121351 0
-0.0194851 -0.0155779 0
-0.0186226 -0.0187661 0
-0.0173925 -0.0215404 0
-0.0157607 -0.0237043 0
-0.013723 -0.0250292 0
-0.0113234 -0.025269 0
-0.00867098 -0.0241858 0
-0.00595016 -0.0215853 0
-0.0034197 -0.0173563 0
-0.00139567 -0.011505 0
-0.000220483 -0.00417288 0
-6.93448e-18 -2.08034e-17 0
-2.43093e-17 3.47275e-18 0
-0.000173671 0.00420252 0
-0.00109166 0.0113688 0
-0.00265562 0.0169028 0
-0.0045929 0.0208374 0
-0.00666963 0.0233057 0
-0.00870959 0.0244982 0
-0.0105971 0.0246253 0
-0.0122696 0.0238899 0
-0.0137051 0.0224717 0
-0.0149095 0.0205195 0
-0.0159055 0.0181516 0
-0.0167236 0.0154575 0
-0.0173958 0.0125036 0
-0.0179508 0.00933753 0
-0.0184108 0.00599382 0
-0.0187889 0.00249915 0
-0.0190866 -0.00112238 0
-0.0192925 -0.0048433 0
-0.0193801 -0.00862624 0
-0.0193075 -0.0124161 0
-0.019018 -0.0161312 0
-0.0184426 -0.0196537 0
-0.0175077 -0.0228199 0
-0.016147 -0.0254145 0
-0.0143201 -0.0271706 0
-0.0120375 -0.0277817 0
-0.00938621 -0.0269298 0
-0.00655168 -0.0243304 0
-0.00382407 -0.0197887 0
-0.00158212 -0.0132537 0
-0.000253118 -0.00485234 0
2.07993e-17 -6.9331e-18 0
-1.04209e-17 1.04209e-17 0
-0.00019651 0.00473748 0
-0.00121975 0.0127314 0
-0.0029245 0.0187765 0
-0.00497171 0.0229353 0
-0.00708211 0.025404 0
-0.00906021 0.0264463 0
-0.0107932 0.0263399 0
-0.0122354 0.0253402 0
-0.0133888 0.0236633 0
-0.0142844 0.0214802 0
-0.0149681 0.0189197 0
-0.0154907 0.0160746 0
-0.0159009 0.0130084 0
-0.0162415 0.00976244 0
-0.016546 0.00636221 0
-0.0168367 0.00282302 0
-0.0171225 -0.000844324 0
-0.0173971 -0.00462763 0
-0.017637 -0.00850648 0
-0.0177986 -0.0124438 0
-0.0178179 -0.0163753 0
-0.0176107 -0.0201969 0
-0.0170775 -0.0237501 0
-0.0161149 -0.0268092 0
-0.0146361 -0.029073 0
-0.0126014 -0.0301703 0
-0.0100577 -0.0296856 0
-0.00717539 -0.0272136 0
-0.00427121 -0.0224368 0
-0.00179752 -0.0152114 0
-0.000292074 -0.00562941 0
-1.0397e-17 3.46565e-18 0
1.73734e-17 -1.38987e-17 0
-0.000227811 0.00534751 0
-0.00138999 0.0142505 0
-0.00326742 0.0207996 0
-0.00542626 0.0251073 0
-0.00752988 0.0274659 0
-0.00936672 0.0282438 0
-0.0108384 0.0278068 0
-0.0119298 0.0264734 0
-0.0126782 0.0244984 0
-0.0131477 0.0220727 0
-0.0134124 0.019332 0
-0.0135456 0.0163674 0
-0.0136134 0.0132361 0
-0.0136721 0.00996993 0
-0.0137659 0.00658301 0
-0.0139262 0.00307764 0
-0.0141698 -0.000550151 0
-0.0144974 -0.00430519 0
-0.0148906 -0.00818668 0
-0.0153087 -0.0121798 0
-0.0156853 -0.0162445 0
-0.0159257 -0.0203001 0
-0.0159077 -0.0242062 0
-0.0154892 -0.0277405 0
-0.0145277 -0.0305795 0
-0.0129154 -0.0322892 0
-0.0106319 -0.0323422 0
-0.0078064 -0.0301753 0
-0.00476753 -0.0252934 0
-0.00205087 -0.017402 0
-0.000339812 -0.00652263 0
1.38579e-17 -1.03935e-17 0
0 6.95192e-18 0
-0.000272536 0.00606167 0
-0.00162454 0.0159745 0
-0.00371695 0.0229953 0
-0.00597873 0.0273265 0
-0.0080045 0.0294136 0
-0.00957902 0.0297753 0
-0.0106401 0.0288908 0
-0.0112237 0.0271499 0
-0.0114171 0.0248439 0
-0.0113263 0.0221769 0
-0.0110567 0.0192837 0
-0.010704 0.016247 0
-0.01035 0.0131124 0
-0.010062 0.00989875 0
-0.0098926 0.00660678 0
-0.00988032 0.00322479 0
-0.0100493 -0.000266346 0
-0.0104079 -0.00388877 0
-0.0109457 -0.00766228 0
-0.0116297 -0.011597 0
-0.0123981 -0.0156824 0
-0.0131541 -0.0198712 0
-0.0137612 -0.024056 0
-0.0140435 -0.0280383 0
-0.0137986 -0.0314937 0
-0.0128327 -0.0339406 0
-0.0110243 -0.0347347 0
-0.008418 -0.0331158 0
-0.00532178 -0.0283346 0
-0.00235689 -0.0198538 0
-0.000400556 -0.00755802 0
-2.42408e-17 3.46297e-18 0
-1.39101e-17 6.95507e-18 0
-0.000339016 0.00692595 0
-0.00195764 0.0179726 0
-0.00431574 0.0253839 0
-0.00664322 0.0295343 0
-0.00846309 0.0311194 0
-0.00958849 0.0308719 0
-0.0100315 0.0294105 0
-0.00990812 0.0271966 0
-0.00937212 0.0245467 0
-0.00857715 0.0216639 0
-0.00765976 0.0186697 0
-0.00673401 0.0156293 0
-0.00589189 0.0125703 0
-0.00520601 0.00949516 0
-0.00473258 0.00638972 0
-0.00451372 0.00322846 0
-0.00457857 -2.1829e-05 0
-0.00494278 -0.00339899 0
-0.00560616 -0.00694204 0
-0.00654797 -0.0106858 0
-0.00771951 -0.0146522 0
-0.00903416 -0.0188346 0
-0.0103558 -0.0231738 0
-0.0114889 -0.0275201 0
-0.0121787 -0.0315817 0
-0.0121344 -0.0348643 0
-0.0110958 -0.0366231 0
-0.00895843 -0.035871 0
-0.00594392 -0.0315068 0
-0.00274011 -0.0226006 0
-0.000481926 -0.00877462 0
6.92192e-18 -1.73048e-17 0
2.43569e-17 -6.95911e-18 0
-0.000441923 0.00801481 0
-0.00244283 0.0203416 0
-0.00511338 0.0279657 0
-0.00740046 0.0316059 0
-0.008783 0.0323706 0
-0.00917309 0.0312878 0
-0.00871771 0.0291291 0
-0.00764787 0.026409 0
-0.00619615 0.0234431 0
-0.00456249 0.0204098 0
-0.00290606 0.0174001 0
-0.0013487 0.0144503 0
1.77895e-05 0.011564 0
0.00112434 0.00872476 0
0.00191852 0.00590344 0
0.00236018 0.00306229 0
0.00241897 0.00015695 0
0.00207362 -0.00286241 0
0.00131357 -0.00604987 0
0.000143215 -0.00946133 0
-0.00141034 -0.0131489 0
-0.00328488 -0.0171497 0
-0.00536571 -0.0214636 0
-0.00746412 -0.0260144 0
-0.00929777 -0.0305867 0
-0.0104884 -0.0347329 0
-0.0106084 -0.037664 0
-0.00932017 -0.038172 0
-0.00663794 -0.0346967 0
-0.00324168 -0.0256809 0
-0.00059846 -0.0102349 0
-2.07497e-17 1.38331e-17 0
-6.96454e-18 3.48227e-18 0
-0.000608669 0.00945293 0
-0.00316378 0.023207 0
-0.00614681 0.030673 0
-0.00813256 0.0332833 0
-0.00866798 0.0328192 0
-0.00790007 0.0306771 0
-0.00619265 0.0277557 0
-0.00391971 0.0245695 0
-0.00138849 0.0213851 0
0.00117301 0.0183237 0
0.00360425 0.0154254 0
0.00579474 0.0126881 0
0.00766848 0.0100874 0
0.00917192 0.00758765 0
0.0102654 0.00514688 0
0.0109175 0.00271874 0
0.0111014 0.000252408 0
0.0107933 -0.00230815 0
0.00997304 -0.00502535 0
0.00862673 -0.00796856 0
0.00675353 -0.0112129 0
0.0043776 -0.0148336 0
0.00156815 -0.0188915 0
-0.00153005 -0.0234008 0
-0.00465568 -0.0282658 0
-0.00738925 -0.0331673 0
-0.0091444 -0.0373847 0
-0.00926908 -0.0395785 0
-0.00737409 -0.0376679 0
-0.00392918 -0.0291262 0
-0.000779611 -0.0120458 0
2.41822e-17 3.4546e-18 0
6.97235e-18 -3.48618e-18 0
-0.0008938 0.0114582 0
-0.00424334 0.0266991 0
-0.00736293 0.0332518 0
-0.00846068 0.0340582 0
-0.00746152 0.0319209 0
-0.00496522 0.0285918 0
-0.00162493 0.0249803 0
0.00205491 0.0214965 0
0.00573594 0.018291 0
0.00920784 0.0153919 0
0.0123458 0.012774 0
0.0150778 0.0103923 0
0.0173622 0.00819608 0
0.0191735 0.00613473 0
0.0204936 0.00415855 0
0.0213057 0.00221814 0
0.0215913 0.000262446 0
0.0213279 -0.00176369 0
0.0204886 -0.00392249 0
0.0190424 -0.00628633 0
0.0169588 -0.00894058 0
0.0142155 -0.0119846 0
0.0108157 -0.0155276 0
0.00681987 -0.0196715 0
0.00239961 -0.0244651 0
-0.00208044 -0.029798 0
-0.00596678 -0.0351851 0
-0.00828537 -0.0393878 0
-0.00799608 -0.0399228 0
-0.00490073 -0.0329073 0
-0.0010878 -0.014401 0
1.72465e-17 -1.03479e-17 0
6.98471e-18 3.49236e-18 0
-0.00140875 0.0144284 0
-0.00580589 0.0308227 0
-0.00834931 0.034988 0
-0.00735833 0.0330012 0
-0.00380326 0.0289139 0
0.00103686 0.024554 0
0.00625877 0.0205802 0
0.0113444 0.0171489 0
0.0160318 0.0142308 0
0.0202042 0.0117429 0
0.0238199 0.00959682 0
0.0268722 0.00771395 0
0.0293692 0.00602757 0
0.0313214 0.00448114 0
0.0327369 0.00302532 0
0.0336167 0.00161475 0
0.0339536 0.000204874 0
0.0337296 -0.0012514 0
0.032915 -0.00280745 0
0.0314671 -0.00452736 0
0.0293301 -0.00649118 0
0.0264371 -0.00880109 0
0.0227186 -0.0115871 0
0.018123 -0.0150089 0
0.0126638 -0.0192412 0
0.00651565 -0.0244146 0
0.000187781 -0.0304388 0
-0.00522867 -0.0365609 0
-0.00793151 -0.0404299 0
-0.00622763 -0.0367399 0
-0.00165073 -0.0176619 0
6.88214e-18 -1.03232e-17 0
-2.80278e-17 0 0
-0.00234336 0.0190885 0
-0.00762658 0.0349282 0
-0.00746632 0.0341717 0
-0.00231058 0.0286537 0
0.00489962 0.0229961 0
0.0123291 0.0183187 0
0.0191854 0.0146553 0
0.0252174 0.0117989 0
0.0303992 0.00954038 0
0.0347837 0.00771669 0
0.0384433 0.00620818 0
0.041447 0.00492788 0
0.0438524 0.00381143 0
0.0457037 0.0028095 0
0.0470312 0.00188227 0
0.047852 0.000995327 0
0.0481689 0.000116253 0
0.0479705 -0.000788466 0
0.047229 -0.00175682 0
0.0458978 -0.00283537 0
0.0439077 -0.00408478 0
0.0411628 -0.0055875 0
0.0375367 -0.00745871 0
0.0328729 -0.00986112 0
0.0270007 -0.0130218 0
0.0197927 -0.0172391 0
0.0113262 -0.0228316 0
0.00227071 -0.0298714 0
-0.00535507 -0.037216 0
-0.0075542 -0.0394514 0
-0.00264932 -0.0224451 0
-2.74144e-17 1.37072e-17 0
-3.52647e-18 7.05294e-18 0
-0.00347211 0.0264149 0
-0.00713994 0.0359853 0
0.000588608 0.0275346 0
0.0121685 0.0195263 0
0.0229021 0.0140797 0
0.0317918 0.0104711 0
0.0389775 0.00799766 0
0.0447788 0.00623028 0
0.0494765 0.00491612 0
0.0532856 0.0039022 0
0.0563649 0.00309256 0
0.05883 0.00242451 0
0.0607646 0.00185524 0
0.0622278 0.001354 0
0.0632594 0.000897255 0
0.063883 0.000465581 0
0.0641074 4.12934e-05 0
0.0639268 -0.000393535 0
0.0633195 -0.000859157 0
0.0622448 -0.00138073 0
0.0606377 -0.00199198 0
0.0584011 -0.0027408 0
0.0553934 -0.00369839 0
0.0514105 -0.00497464 0
0.0461635 -0.00674458 0
0.0392552 -0.00929314 0
0.0301926 -0.0130834 0
0.0185655 -0.0188264 0
0.00490559 -0.0273716 0
-0.00612406 -0.0373214 0
-0.00370198 -0.0292134 0
-1.35943e-17 0 0
2.87844e-17 -1.43922e-17 0
-0.00045539 0.0341753 0
0.0105805 0.0248858 0
0.0307798 0.012122 0
0.0452626 0.00694252 0
0.0548629 0.00454967 0
0.0615695 0.00320308 0
0.0664986 0.00235643 0
0.0702444 0.00178617 0
0.0731524 0.00138027 0
0.0754375 0.0010775 0
0.0772398 0.000842288 0
0.078653 0.000652712 0
0.0797411 0.000494484 0
0.0805478 0.000357729 0
0.0811021 0.000235163 0
0.0814211 0.000120956 0
0.0815123 9.95126e-06 0
0.0813736 -0.000102978 0
0.0809924 -0.000223576 0
0.0803437 -0.000359009 0
0.0793865 -0.000519038 0
0.0780563 -0.000717907 0
0.0762543 -0.000977628 0
0.0738281 -0.00133408 0
0.0705367 -0.00184918 0
0.0659881 -0.00263659 0
0.0595172 -0.00391277 0
0.0499157 -0.00609698 0
0.0348649 -0.0103172 0
0.0123003 -0.0218278 0
0.000220739 -0.034072 0
0 0 0
7.62433e-18 2.2873e-17 0
0.1 2.12112e-17 0
0.1 1.45117e-17 0
0.1 -1.76341e-17 0
0.1 -1.40205e-17 0
0.1 -6.9894e-18 0
0.1 0 0
0.1 6.96842e-18 0
0.1 -1.74085e-17 0
0.1 -6.9602e-18 0
0.1 3.47908e-18 0
0.1 3.47839e-18 0
0.1 0 0
0.1 -1.04324e-17 0
0.1 -3.47703e-18 0
0.1 -1.3906e-17 0
0.1 3.47581e-18 0
0.1 -6.9498e-18 0
0.1 3.47371e-18 0
0.1 -6.94435e-18 0
0.1 -1.04107e-17 0
0.1 0 0
0.1 0 0
0.1 -1.38432e-17 0
0.1 -1.38236e-17 0
0.1 -6.89927e-18 0
0.1 1.0324e-17 0
0.1 0 0
0.1 3.41343e-18 0
0.1 -6.78321e-18 0
0.1 3.31981e-18 0
0.1 1.10097e-17 0
1.20357e-17 -3.00893e-18 0
