# vtk DataFile Version 2.0
Test
ASCII
DATASET STRUCTURED_POINTS
DIMENSIONS 8 8 1
ORIGIN 0 0 0
SPACING 0.125 0.125 1
POINT_DATA 64
VECTORS Velocity double
0 1.46403e-17 0
-0.00645076 3.5885e-18 0
-0.00812649 0 0
-0.00864251 -6.98138e-18 0
-0.00842185 1.03268e-17 0
-0.0075246 1.35853e-17 0
-0.00574307 -1.67783e-17 0
3.29769e-18 -1.64885e-17 0
-0.0958271 3.66008e-18 0
-0.0937376 0.00153267 0
-0.092489 0.000727206 0
-0.0912598 0.000126386 0
-0.0898677 -0.00034305 0
-0.0883648 -0.000802971 0
-0.0870383 -0.00128084 0
-0.0862295 -1.31908e-17 0
-0.154329 0 0
-0.151413 0.000926766 0
-0.148529 0.000616355 0
-0.14614 8.38358e-05 0
-0.144069 -0.000373226 0
-0.142284 -0.000722257 0
-0.140835 -0.000675703 0
-0.139069 1.31908e-17 0
-0.182953 0 0
-0.179616 0.000294227 0
-0.176305 0.000209158 0
-0.173447 2.17393e-05 0
-0.171067 -0.000152358 0
-0.169054 -0.000248725 0
-0.167156 -0.00020026 0
-0.164977 0 0
-0.182953 -7.32015e-18 0
-0.179616 -0.000294227 0
-0.176305 -0.000209158 0
-0.173447 -2.17393e-05 0
-0.171067 0.000152358 0
-0.169054 0.000248725 0
-0.167156 0.00020026 0
-0.164977 -1.31908e-17 0
-0.154329 -7.32015e-18 0
-0.151413 -0.000926766 0
-0.148529 -0.000616355 0
-0.14614 -8.38358e-05 0
-0.144069 0.000373226 0
-0.142284 0.000722257 0
-0.140835 0.000675703 0
-0.139069 1.31908e-17 0
-0.0958271 7.32015e-18 0
-0.0937376 -0.00153267 0
-0.092489 -0.000727206 0
-0.0912598 -0.000126386 0
-0.0898677 0.00034305 0
-0.0883648 0.000802971 0
-0.0870383 0.00128084 0
-0.0862295 0 0
-7.32015e-18 -7.32015e-18 0
-0.00645076 0 0
-0.00812649 0 0
-0.00864251 0 0
-0.00842185 0 0
-0.0075246 0 0
-0.00574307 0 0
0 -6.59538e-18 0
