# vtk DataFile Version 2.0
Test
ASCII
DATASET STRUCTURED_POINTS
DIMENSIONS 8 8 1
ORIGIN 0 0 0
SPACING 0.125 0.125 1
POINT_DATA 64
VECTORS Velocity double
1.58324e-17 0 0
-0.0168877 3.7499e-18 0
-0.0201778 3.62154e-18 0
-0.0204211 -5.25068e-18 0
-0.0191164 6.77941e-18 0
-0.0165377 1.64496e-17 0
-0.0123546 0 0
-6.17638e-18 -6.17638e-18 0
-0.20846 0 0
-0.197308 0.0034198 0
-0.189525 0.00100418 0
-0.182613 -0.000301228 0
-0.176081 -0.00114799 0
-0.169957 -0.00190335 0
-0.164787 -0.00267699 0
-0.160684 0 0
-0.32462 1.58324e-17 0
-0.308919 0.00164752 0
-0.295643 0.00044543 0
-0.284931 -0.000603397 0
-0.275792 -0.00131077 0
-0.267883 -0.00172763 0
-0.261093 -0.00133267 0
-0.253618 0 0
-0.378235 0 0
-0.360571 0.000407012 0
-0.345932 4.30786e-05 0
-0.333869 -0.000305619 0
-0.32367 -0.000547277 0
-0.314723 -0.000591038 0
-0.306285 -0.000390108 0
-0.297451 0 0
-0.378235 1.58324e-17 0
-0.360571 -0.000407012 0
-0.345932 -4.30786e-05 0
-0.333869 0.000305619 0
-0.32367 0.000547277 0
-0.314723 0.000591038 0
-0.306285 0.000390108 0
-0.297451 0 0
-0.32462 0 0
-0.308919 -0.00164752 0
-0.295643 -0.00044543 0
-0.284931 0.000603397 0
-0.275792 0.00131077 0
-0.267883 0.00172763 0
-0.261093 0.00133267 0
-0.253618 -1.23528e-17 0
-0.20846 7.9162e-18 0
-0.197308 -0.0034198 0
-0.189525 -0.00100418 0
-0.182613 0.000301228 0
-0.176081 0.00114799 0
-0.169957 0.00190335 0
-0.164787 0.00267699 0
-0.160684 1.23528e-17 0
7.9162e-18 0 0
-0.0168877 0 0
-0.0201778 -1.44861e-17 0
-0.0204211 -7.00091e-18 0
-0.0191164 1.35588e-17 0
-0.0165377 -6.57983e-18 0
-0.0123546 6.41125e-18 0
-1.23528e-17 -6.17638e-18 0
